<?xml version="1.0" encoding="UTF-8"?>

<!-- generated on 12/12/20 21:33:13 by Eclipse SUMO GUI Version 1.7.0
<configuration xmlns:xsi="http://www.w3.org/2001/XMLSchema-instance" xsi:noNamespaceSchemaLocation="http://sumo.dlr.de/xsd/sumoConfiguration.xsd">

    <input>
        <net-file value="network.net.xml"/>
        <route-files value="passenger.rou.xml"/>
        <additional-files value="parkingArea.add.xml,vehicles.vType.xml"/>
    </input>

    <output>
        <tripinfo-output value="tripinfo.xml"/>
    </output>

    <time>
        <begin value="0.0"/>
        <step-length value=".25"/>
    </time>

    <processing>
        <lateral-resolution value="0.3"/>
        <ignore-junction-blocker value="60"/>
        <ignore-route-errors value="true"/>
        <collision.action value="none"/>
        <time-to-teleport value="60"/>
        <max-depart-delay value="900"/>
        <time-to-impatience value="30"/>
        <default.emergencydecel value="decel"/>
        <pedestrian.model value="striping"/>
        <pedestrian.striping.stripe-width value="0.55"/>
        <pedestrian.striping.jamtime value="30"/>
    </processing>

    <routing>
        <persontrip.transfer.car-walk value="parkingAreas,ptStops"/>
        <device.rerouting.probability value="1"/>
        <device.rerouting.period value="300"/>
        <device.rerouting.pre-period value="300"/>
        <device.rerouting.threads value="4"/>
    </routing>

    <report>
        <verbose value="true"/>
        <duration-log.statistics value="true"/>
    </report>

    <traci_server>
        <remote-port value="52214"/>
    </traci_server>

    <random_number>
        <seed value="42"/>
    </random_number>

    <gui_only>
        <tracker-interval value="0.25"/>
    </gui_only>

</configuration>
-->

<tripinfos xmlns:xsi="http://www.w3.org/2001/XMLSchema-instance" xsi:noNamespaceSchemaLocation="http://sumo.dlr.de/xsd/tripinfo_file.xsd">
    <tripinfo id="car1" depart="0.50" departLane="a1_0" departPos="5.10" departPosLat="0.00" departSpeed="0.00" departDelay="0.02" arrival="150.25" arrivalLane="a3_0" arrivalPos="96.00" arrivalPosLat="0.00" arrivalSpeed="12.70" duration="149.75" routeLength="294.90" waitingTime="0.00" waitingCount="0" stopTime="120.00" timeLoss="6.62" rerouteNo="1" devices="tripinfo_car1 routing_car1" vType="car2" speedFactor="0.92" vaporized=""/>
</tripinfos>
