<?xml version="1.0" encoding="UTF-8"?>

<!-- generated on 12/12/20 20:00:13 by Eclipse SUMO GUI Version 1.7.0
<configuration xmlns:xsi="http://www.w3.org/2001/XMLSchema-instance" xsi:noNamespaceSchemaLocation="http://sumo.dlr.de/xsd/sumoConfiguration.xsd">

    <input>
        <net-file value="highway.net.xml"/>
        <route-files value="highway.rou.xml"/>
        <additional-files value="highway.add.xml"/>
    </input>

    <output>
        <tripinfo-output value="tripinfo.xml"/>
    </output>

    <traci_server>
        <remote-port value="59767"/>
    </traci_server>

</configuration>
-->

<tripinfos xmlns:xsi="http://www.w3.org/2001/XMLSchema-instance" xsi:noNamespaceSchemaLocation="http://sumo.dlr.de/xsd/tripinfo_file.xsd">
    <tripinfo id="carflow.0" depart="3.00" departLane="e1_0" departPos="5.10" departSpeed="0.00" departDelay="3.00" arrival="51.00" arrivalLane="e2_0" arrivalPos="132.81" arrivalSpeed="5.27" duration="48.00" routeLength="256.01" waitingTime="0.00" waitingCount="0" stopTime="0.00" timeLoss="10.83" rerouteNo="0" devices="tripinfo_carflow.0 routing_carflow.0" vType="car" speedFactor="0.94" vaporized=""/>
    <tripinfo id="carflow.1" depart="7.00" departLane="e1_0" departPos="5.10" departSpeed="0.00" departDelay="7.00" arrival="56.00" arrivalLane="e2_0" arrivalPos="132.81" arrivalSpeed="5.10" duration="49.00" routeLength="256.01" waitingTime="0.00" waitingCount="0" stopTime="0.00" timeLoss="12.05" rerouteNo="0" devices="tripinfo_carflow.1 routing_carflow.1" vType="car" speedFactor="1.01" vaporized=""/>
    <tripinfo id="carflow.2" depart="11.00" departLane="e1_0" departPos="5.10" departSpeed="0.00" departDelay="11.00" arrival="57.00" arrivalLane="e2_1" arrivalPos="132.81" arrivalSpeed="5.51" duration="46.00" routeLength="256.01" waitingTime="0.00" waitingCount="0" stopTime="0.00" timeLoss="8.82" rerouteNo="0" devices="tripinfo_carflow.2 routing_carflow.2" vType="car" speedFactor="1.08" vaporized=""/>
    <tripinfo id="carflow.3" depart="14.00" departLane="e1_0" departPos="5.10" departSpeed="0.00" departDelay="14.00" arrival="61.00" arrivalLane="e2_0" arrivalPos="132.81" arrivalSpeed="5.08" duration="47.00" routeLength="256.01" waitingTime="0.00" waitingCount="0" stopTime="0.00" timeLoss="9.83" rerouteNo="0" devices="tripinfo_carflow.3 routing_carflow.3" vType="car" speedFactor="1.03" vaporized=""/>
    <tripinfo id="carflow.4" depart="19.00" departLane="e1_0" departPos="5.10" departSpeed="0.00" departDelay="19.00" arrival="65.00" arrivalLane="e2_0" arrivalPos="132.81" arrivalSpeed="6.62" duration="46.00" routeLength="256.01" waitingTime="0.00" waitingCount="0" stopTime="0.00" timeLoss="9.43" rerouteNo="0" devices="tripinfo_carflow.4 routing_carflow.4" vType="car" speedFactor="0.83" vaporized=""/>
</tripinfos>
